# Force coefficients
# dragDir         : (1.0000000000e+00 0.0000000000e+00 0.0000000000e+00)
# sideDir         : (0.0000000000e+00 0.0000000000e+00 -1.0000000000e+00)
# liftDir         : (0.0000000000e+00 1.0000000000e+00 0.0000000000e+00)
# rollAxis        : (1.0000000000e+00 0.0000000000e+00 0.0000000000e+00)
# pitchAxis       : (0.0000000000e+00 0.0000000000e+00 -1.0000000000e+00)
# yawAxis         : (0.0000000000e+00 1.0000000000e+00 0.0000000000e+00)
# magUInf         : 1.5192400000e+00
# lRef            : 1.0000000000e+00
# Aref            : 1.0000000000e+00
# CofR            : (0.0000000000e+00 0.0000000000e+00 0.0000000000e+00)
#
# Time            	Cd                	Cs                	Cl                	CmRoll            	CmPitch           	CmYaw             	Cd(f)             	Cd(r)             	Cs(f)             	Cs(r)             	Cl(f)             	Cl(r)             
0.0025            	1.3556066335e-03	-3.5675415198e-23	1.3427163705e-03	-2.9216888273e-24	1.1382000490e-07	-7.6462610282e-24	6.7780331674e-04	6.7780331674e-04	-2.5483968627e-23	-1.0191446571e-23	6.7147200526e-04	6.7124436525e-04
0.005             	1.1534034044e-03	-3.0297788982e-23	1.1412341381e-03	-2.4896140220e-24	9.8710697301e-08	-6.5060066119e-24	5.7670170218e-04	5.7670170218e-04	-2.1654901103e-23	-8.6428878791e-24	5.7071577973e-04	5.7051835834e-04
0.0075            	3.3725397810e-03	-8.8674896410e-23	3.3381106837e-03	-7.2588449488e-24	2.9756916908e-07	-1.9004338766e-23	1.6862698905e-03	1.6862698905e-03	-6.3341786971e-23	-2.5333109438e-23	1.6693529110e-03	1.6687577727e-03
0.01              	6.7321788959e-03	-1.8012087639e-22	6.6627808487e-03	6.0020164158e-24	6.1524213533e-07	-1.2056046949e-23	3.3660894480e-03	3.3660894480e-03	-1.0211648515e-22	-7.8004391248e-23	3.3320056665e-03	3.3307751822e-03
0.01333333333     	1.2591679904e-02	-3.6188021258e-22	1.2456608066e-02	2.0512316903e-23	1.1245675625e-06	-1.2322591535e-23	6.2958399518e-03	6.2958399518e-03	-1.9326269782e-22	-1.6861751475e-22	6.2294286004e-03	6.2271794653e-03
0.01666666667     	3.8347311187e-02	-6.1578786380e-22	3.7944394910e-02	-1.2202095434e-22	3.5743735900e-06	-1.1922640181e-22	1.9173655594e-02	1.9173655594e-02	-4.2712033371e-22	-1.8866753009e-22	1.8975771828e-02	1.8968623081e-02
0.02              	9.5413939420e-02	-4.1359599780e-21	9.4405067262e-02	-4.6909615210e-22	9.5888219610e-06	-5.5418212102e-22	4.7706969710e-02	4.7706969710e-02	-2.6221621100e-21	-1.5137978680e-21	4.7212122453e-02	4.7192944809e-02
0.025             	2.2327836953e-01	-5.2772202393e-21	2.2076600073e-01	-1.8202278759e-21	3.0847222379e-05	-2.3630195390e-21	1.1163918477e-01	1.1163918477e-01	-5.0016296586e-21	-2.7559058066e-22	1.1041384758e-01	1.1035215314e-01
0.03              	6.8656502713e-01	-1.9445906284e-20	6.7882600411e-01	1.1085391575e-21	1.7191321541e-04	-6.7661964970e-22	3.4328251356e-01	3.4328251356e-01	-1.0399572792e-20	-9.0463334923e-21	3.3958491527e-01	3.3924108884e-01
0.035             	1.1631225601e+00	-2.7508920563e-20	1.1491647493e+00	-9.4649816278e-21	5.9314864795e-04	-1.2286379950e-20	5.8156128006e-01	5.8156128006e-01	-2.6040840231e-20	-1.4680803319e-21	5.7517552331e-01	5.7398922602e-01
0.04              	1.4584976998e+00	-2.3090813726e-20	1.4392988010e+00	-4.4800184050e-21	1.4191895527e-03	-4.3718637445e-21	7.2924884988e-01	7.2924884988e-01	-1.5917270608e-20	-7.1735431185e-21	7.2106859004e-01	7.1823021094e-01
0.045             	1.5500603829e+00	2.1944905340e-20	1.5272168119e+00	-8.5421217523e-21	2.6105141255e-03	-1.1748796551e-20	7.7503019145e-01	7.7503019145e-01	-7.7634388082e-22	2.2721249221e-20	7.6621892006e-01	7.6099789181e-01
0.05              	1.5789453494e+00	-4.9363942614e-20	1.5529135232e+00	-7.7035341205e-21	4.1964312072e-03	-9.7137272402e-21	7.8947267468e-01	7.8947267468e-01	-3.4395698547e-20	-1.4968244067e-20	7.8065319280e-01	7.7226033038e-01
0.055             	1.5924475321e+00	2.5681866717e-20	1.5633625065e+00	-5.1890971813e-21	6.1500273786e-03	-4.6671507103e-21	7.9622376606e-01	7.9622376606e-01	8.1737826483e-21	1.7508084069e-20	7.8783128065e-01	7.7553122589e-01
0.06              	1.6028015852e+00	-2.2709723206e-20	1.5707057002e+00	-4.3895492739e-21	8.5267252416e-03	-9.2124725938e-21	8.0140079259e-01	8.0140079259e-01	-2.0567334197e-20	-2.1423890094e-21	7.9387957534e-01	7.7682612485e-01
0.065             	1.6125116717e+00	-2.2960237159e-20	1.5773701213e+00	-4.1339008861e-21	1.1335585465e-02	-8.9722452656e-21	8.0625583587e-01	8.0625583587e-01	-2.0452363845e-20	-2.5078733137e-21	8.0002064613e-01	7.7734947520e-01
0.07              	1.6223547049e+00	3.7611969082e-20	1.5841336986e+00	-1.4862785909e-20	1.4559478133e-02	-1.4076410028e-20	8.1117735243e-01	8.1117735243e-01	4.7295745134e-21	3.2882394569e-20	8.0662632741e-01	7.7750737114e-01
0.075             	1.6325871173e+00	-3.2011330831e-20	1.5912887737e+00	-1.7172321425e-20	1.8241891184e-02	-2.0723507667e-20	8.1629355867e-01	8.1629355867e-01	-3.6729173082e-20	4.7178422513e-21	8.1388627805e-01	7.7740249568e-01
0.08              	1.6432863805e+00	-3.2029284121e-20	1.5989650978e+00	3.2572342224e-21	2.2360913922e-02	-2.7896007029e-22	8.2164319027e-01	8.2164319027e-01	-1.6293602131e-20	-1.5735681990e-20	8.2184346284e-01	7.7712163500e-01
0.085             	1.6545895763e+00	-2.9344210422e-20	1.6072055323e+00	2.5322954556e-21	2.6929105993e-02	-1.1570982255e-21	8.2729478816e-01	8.2729478816e-01	-1.5829203436e-20	-1.3515006986e-20	8.3053187217e-01	7.7667366018e-01
0.09              	1.6665091096e+00	-1.9017800592e-20	1.6160390807e+00	-1.3680855064e-20	3.1957465060e-02	-1.6831595971e-20	8.3325455480e-01	8.3325455480e-01	-2.6340496267e-20	7.3226956749e-21	8.3997700543e-01	7.7606207531e-01
0.095             	1.6790911387e+00	5.7681763962e-21	1.6255363808e+00	-2.6692992367e-21	3.7428631771e-02	-5.6463606693e-21	8.3954556933e-01	8.3954556933e-01	-2.7622724712e-21	8.5304488674e-21	8.5019682215e-01	7.7533955860e-01
0.1               	1.6924024273e+00	-3.9874820767e-20	1.6357746882e+00	3.8461671943e-22	4.3378956547e-02	-3.2783454382e-21	8.4620121366e-01	8.4620121366e-01	-2.3215755822e-20	-1.6659064945e-20	8.6126630065e-01	7.7450838755e-01
0.105             	1.7064538619e+00	-2.6978640611e-20	1.6468062819e+00	-5.6834529822e-22	4.9834677608e-02	-5.4990687605e-21	8.5322693095e-01	8.5322693095e-01	-1.8988389066e-20	-7.9902515449e-21	8.7323781857e-01	7.7356846335e-01
0.11              	1.7210779013e+00	-3.4102229647e-20	1.6584705538e+00	9.6665241052e-22	5.6754246760e-02	-2.9226408441e-21	8.6053895067e-01	8.6053895067e-01	-1.9973755668e-20	-1.4128473980e-20	8.8598952364e-01	7.7248103012e-01
0.115             	1.7363112852e+00	4.7916190100e-20	1.6707838902e+00	2.0959173217e-22	6.4153177920e-02	-1.8685006570e-21	8.6815564259e-01	8.6815564259e-01	2.2089594393e-20	2.5826595707e-20	8.9954512300e-01	7.7123876716e-01
0.12              	1.7521354610e+00	-3.0157109821e-20	1.6837123908e+00	4.8231792745e-21	7.2014609667e-02	-1.4291114476e-22	8.7606773048e-01	8.7606773048e-01	-1.5221466055e-20	-1.4935643766e-20	9.1387080505e-01	7.6984158571e-01
0.125             	1.7685506309e+00	-2.4555860584e-20	1.6972965783e+00	8.1901077919e-21	8.0362877513e-02	6.1852418220e-21	8.8427531543e-01	8.8427531543e-01	-6.0926884703e-21	-1.8463172114e-20	9.2901116668e-01	7.6828541166e-01
0.13              	1.7853739806e+00	-4.4579268288e-20	1.7112907986e+00	-1.1187640282e-20	8.9210317172e-02	-1.4659013687e-20	8.9268699030e-01	8.9268699030e-01	-3.6948647831e-20	-7.6306204570e-21	9.4485571647e-01	7.6643508213e-01
0.135             	1.8027053154e+00	5.5191006753e-20	1.7259625061e+00	-9.3355706462e-21	9.8594723155e-02	-1.3411168547e-20	9.0135265771e-01	9.0135265771e-01	1.4184334830e-20	4.1006671924e-20	9.6157597619e-01	7.6438652988e-01
0.14              	1.8205918198e+00	-9.5566875785e-20	1.7412759126e+00	1.4140613295e-20	1.0850957171e-01	1.1745797537e-20	9.1029590990e-01	9.1029590990e-01	-3.6037640355e-20	-5.9529235429e-20	9.7914752801e-01	7.6212838459e-01
0.145             	1.8390771459e+00	6.9574984152e-21	1.7572551896e+00	1.2033769801e-20	1.1890500287e-01	7.3031181953e-21	9.1953857297e-01	9.1953857297e-01	1.0781867403e-20	-3.8243689878e-21	9.9753259766e-01	7.5972259191e-01
0.15              	1.8580636472e+00	4.5913760541e-20	1.7738213087e+00	4.9966313070e-21	1.2980009184e-01	5.3012994771e-22	9.2903182362e-01	9.2903182362e-01	2.3487010218e-20	2.2426750323e-20	1.0167107462e+00	7.5711056252e-01
0.155             	1.8774332854e+00	4.5508735586e-20	1.7911422348e+00	5.5827219758e-21	1.4124596598e-01	9.4192857615e-22	9.3871664268e-01	9.3871664268e-01	2.3696296369e-20	2.1812439217e-20	1.0368170834e+00	7.5432515141e-01
0.16              	1.8975793162e+00	4.3793297994e-20	1.8091570679e+00	1.3760749995e-21	1.5314400475e-01	-1.9813087763e-21	9.4878965810e-01	9.4878965810e-01	1.9915340220e-20	2.3877957773e-20	1.0577225387e+00	7.5143452918e-01
0.165             	1.9182176775e+00	2.7566031255e-20	1.8278029638e+00	-2.2035583592e-20	1.6557813689e-01	-2.4039193534e-20	9.5910883876e-01	9.5910883876e-01	-1.0256177906e-20	3.7822209161e-20	1.0794796188e+00	7.4832334502e-01
0.17              	1.9395285350e+00	2.8459301760e-20	1.8473093148e+00	-2.2222188148e-20	1.7851578080e-01	-2.4357535016e-20	9.6976426748e-01	9.6976426748e-01	-1.0127884136e-20	3.8587185895e-20	1.1021704382e+00	7.4513887659e-01
0.175             	1.9618212920e+00	-1.0963813493e-20	1.8679575203e+00	-9.9658190345e-21	1.9204041611e-01	-1.0598216499e-20	9.8091064601e-01	9.8091064601e-01	-1.6080123246e-20	5.1163097527e-21	1.1260191762e+00	7.4193834402e-01
0.18              	1.9833453560e+00	1.6532863588e-20	1.8883159096e+00	4.5807900858e-21	2.0584049700e-01	3.3087737481e-21	9.9167267800e-01	9.9167267800e-01	1.1575205542e-20	4.9576580460e-21	1.1499984518e+00	7.3831745781e-01
0.185             	2.0069692977e+00	8.6124598015e-20	1.9107454607e+00	-8.0554716325e-21	2.2065057825e-01	-1.3285797561e-20	1.0034846489e+00	1.0034846489e+00	2.9776501447e-20	5.6348096569e-20	1.1760233086e+00	7.3472215208e-01
0.19              	2.0309833692e+00	1.3696449282e-20	1.9337752251e+00	1.1240021463e-20	2.3579241994e-01	8.5083731700e-21	1.0154916846e+00	1.0154916846e+00	1.5356597811e-20	-1.6601485290e-21	1.2026800325e+00	7.3109519262e-01
0.195             	2.0563088151e+00	8.9116650647e-20	1.9581595840e+00	-4.0442829549e-21	2.5158897015e-01	-1.1576719349e-20	1.0281544076e+00	1.0281544076e+00	3.2981605975e-20	5.6135044672e-20	1.2306687622e+00	7.2749082186e-01
0.2               	2.0847274113e+00	-1.3971112556e-20	1.9859488344e+00	-5.8478696500e-22	2.6888660296e-01	-3.8890687209e-21	1.0423637056e+00	1.0423637056e+00	-1.0874624999e-20	-3.0964875569e-21	1.2618610201e+00	7.2408781422e-01
0.205             	2.1103727907e+00	2.0952299169e-20	2.0117668765e+00	1.5098907742e-20	2.8600672328e-01	1.0309643327e-20	1.0551863954e+00	1.0551863954e+00	2.0785792912e-20	1.6650625704e-22	1.2918901615e+00	7.1987671498e-01
0.21              	2.1400837936e+00	3.2492589442e-20	2.0419035292e+00	1.8488639533e-20	3.0257974836e-01	1.1872171631e-20	1.0700418968e+00	1.0700418968e+00	2.8118466352e-20	4.3741230898e-21	1.3235315130e+00	7.1837201627e-01
0.215             	2.1687918640e+00	7.9117289381e-20	2.0703241123e+00	-1.1914745964e-20	3.2022322349e-01	-2.0354167758e-20	1.0843959320e+00	1.0843959320e+00	1.9204476932e-20	5.9912812449e-20	1.3553852796e+00	7.1493883264e-01
0.22              	2.1982395783e+00	1.1694003461e-19	2.1001771643e+00	7.6068598432e-21	3.3868718393e-01	-4.8718610297e-21	1.0991197891e+00	1.0991197891e+00	5.3598156275e-20	6.3341878334e-20	1.3887757661e+00	7.1140139821e-01
0.225             	2.2319804163e+00	2.3209057919e-21	2.1358900941e+00	1.6317709596e-20	3.5728403639e-01	1.1913468005e-20	1.1159902081e+00	1.1159902081e+00	1.3073920901e-20	-1.0753015109e-20	1.4252290834e+00	7.1066101066e-01
0.23              	2.2628310801e+00	5.1153446685e-21	2.1677137436e+00	3.4636137114e-21	3.7724864629e-01	-2.2937673267e-21	1.1314155401e+00	1.1314155401e+00	2.6390500754e-22	4.8514396610e-21	1.4611055181e+00	7.0660822548e-01
0.235             	2.2938113238e+00	1.0962689572e-19	2.1995378506e+00	-1.6117351118e-20	3.9806070123e-01	-2.7945479558e-20	1.1469056619e+00	1.1469056619e+00	2.6867968299e-20	8.2758927416e-20	1.4978296266e+00	7.0170822409e-01
0.24              	2.3255854264e+00	1.1369693364e-20	2.2327818590e+00	-3.4276515339e-21	4.1964952317e-01	-5.2221339092e-21	1.1627927132e+00	1.1627927132e+00	4.6271277280e-22	1.0906980591e-20	1.5360404527e+00	6.9674140633e-01
0.245             	2.3587979748e+00	-8.9703749149e-20	2.2679710358e+00	2.7463302118e-22	4.4210103706e-01	5.4449211323e-21	1.1793989874e+00	1.1793989874e+00	-3.9406953442e-20	-5.0296795707e-20	1.5760865550e+00	6.9188448086e-01
0.25              	2.3916940414e+00	7.3392663086e-20	2.3035197526e+00	-2.2167911848e-20	4.6539816933e-01	-3.1718779919e-20	1.1958470207e+00	1.1958470207e+00	4.9775516236e-21	6.8415111462e-20	1.6171580456e+00	6.8636170697e-01
0.255             	2.4261657039e+00	-1.7179009696e-20	2.3398895302e+00	9.4420059027e-22	4.8937080400e-01	-3.9846977974e-22	1.2130828520e+00	1.2130828520e+00	-8.9879746278e-21	-8.1910350683e-21	1.6593155691e+00	6.8057396110e-01
0.26              	2.4618171490e+00	-9.4220642328e-20	2.3788834180e+00	1.1955853878e-20	5.1432215300e-01	1.8244604200e-20	1.2309085745e+00	1.2309085745e+00	-2.8865716964e-20	-6.5354925364e-20	1.7037638620e+00	6.7511955600e-01
0.265             	2.4971673520e+00	-4.0452390063e-20	2.4175616928e+00	-3.0335131090e-21	5.3986958782e-01	-2.2612062473e-21	1.2485836760e+00	1.2485836760e+00	-2.2487401279e-20	-1.7964988784e-20	1.7486504342e+00	6.6891125857e-01
0.27              	2.5366389351e+00	5.1344191187e-20	2.4605649870e+00	-8.4211307828e-21	5.6759072801e-01	-1.7988567924e-20	1.2683194675e+00	1.2683194675e+00	7.6835276698e-21	4.3660663517e-20	1.7978732215e+00	6.6269176548e-01
0.275             	2.5772199114e+00	-1.1241800821e-19	2.5037974609e+00	1.0349642058e-20	5.9655815637e-01	1.8306134394e-20	1.2886099557e+00	1.2886099557e+00	-3.7902869714e-20	-7.4515138501e-20	1.8484568868e+00	6.5534057409e-01
0.28              	2.6159213954e+00	-6.8826189750e-20	2.5459190157e+00	-6.4068257664e-21	6.2583716285e-01	-2.2017311357e-21	1.3079606977e+00	1.3079606977e+00	-3.6614826011e-20	-3.2211363739e-20	1.8987966707e+00	6.4712234499e-01
0.285             	2.6544313570e+00	-1.7458925876e-20	2.5880075425e+00	-1.6108320856e-20	6.5604692191e-01	-1.5476108719e-20	1.3272156785e+00	1.3272156785e+00	-2.4205571657e-20	6.7466457811e-21	1.9500506932e+00	6.3795684935e-01
0.29              	2.6995156609e+00	-9.4238399113e-20	2.6357863268e+00	-5.2707024882e-21	6.8971881657e-01	2.2171820211e-21	1.3497578304e+00	1.3497578304e+00	-4.4902017536e-20	-4.9336381578e-20	2.0076119800e+00	6.2817434682e-01
0.295             	2.7448931291e+00	-4.2189141311e-20	2.6846582098e+00	-2.0488069380e-20	7.2194896718e-01	-1.8405467704e-20	1.3724465646e+00	1.3724465646e+00	-3.9500038360e-20	-2.6891029509e-21	2.0642780721e+00	6.2038013773e-01
0.3               	2.7882233950e+00	-2.1233167178e-19	2.7316390699e+00	2.9291594648e-20	7.5540268359e-01	5.4383007209e-20	1.3941116975e+00	1.3941116975e+00	-5.1782828683e-20	-1.6054884310e-19	2.1212222185e+00	6.1041685136e-01
0.305             	2.8309961789e+00	-2.1667210493e-19	2.7782577755e+00	1.1271170343e-20	7.8998614057e-01	4.2104909310e-20	1.4154980895e+00	1.4154980895e+00	-6.6231143157e-20	-1.5044096178e-19	2.1791150283e+00	5.9914274717e-01
0.31              	2.8761465756e+00	-2.1520491017e-19	2.8276194833e+00	2.6253583898e-21	8.2577794974e-01	3.4593872776e-20	1.4380732878e+00	1.4380732878e+00	-7.3008582307e-20	-1.4219632786e-19	2.2395876914e+00	5.8803179193e-01
0.315             	2.9231763323e+00	-1.2576984460e-19	2.8792668959e+00	-1.2771268770e-20	8.6264665009e-01	3.8995301322e-21	1.4615881662e+00	1.4615881662e+00	-5.8985392170e-20	-6.6784452434e-20	2.3022800980e+00	5.7698679784e-01
0.32              	2.9712187563e+00	-1.9522734135e-19	2.9314344344e+00	4.8402905048e-21	9.0039676754e-01	3.6623412164e-20	1.4856093781e+00	1.4856093781e+00	-6.0990258512e-20	-1.3423708284e-19	2.3661139847e+00	5.6532044965e-01
0.325             	3.0202797737e+00	-1.2867148102e-19	2.9845527415e+00	-1.3154624291e-20	9.4127430401e-01	5.5023538944e-21	1.5101398868e+00	1.5101398868e+00	-5.8833386615e-20	-6.9838094403e-20	2.4335506748e+00	5.5100206675e-01
0.33              	3.0697841223e+00	-7.2522640276e-20	3.0385195023e+00	-1.3034732106e-20	9.8383500985e-01	-6.6853707481e-21	1.5348920612e+00	1.5348920612e+00	-4.2946690886e-20	-2.9575949390e-20	2.5030947610e+00	5.3542474127e-01
0.335             	3.1175824440e+00	3.5762804471e-20	3.0909070013e+00	-5.2913443011e-20	1.0266891535e+00	-6.0038455611e-20	1.5587912220e+00	1.5587912220e+00	-4.2157053375e-20	7.7919857846e-20	2.5721426542e+00	5.1876434716e-01
0.34              	3.1659429342e+00	-6.8213092902e-20	3.1435734480e+00	-2.1688301159e-20	1.0705667529e+00	-1.1076478887e-20	1.5829714671e+00	1.5829714671e+00	-4.5183025338e-20	-2.3030067564e-20	2.6423534769e+00	5.0121997109e-01
0.345             	3.2181474911e+00	-2.6248093932e-20	3.1994947990e+00	-3.1364065198e-20	1.1163781666e+00	-3.0207745601e-20	1.6090737455e+00	1.6090737455e+00	-4.3331792567e-20	1.7083698634e-20	2.7161255661e+00	4.8336923289e-01
0.35              	3.2674090935e+00	-7.1635234242e-20	3.2539757866e+00	-3.7937707783e-20	1.1628460177e+00	-2.0944310074e-20	1.6337045468e+00	1.6337045468e+00	-5.6761927195e-20	-1.4873307047e-20	2.7898339110e+00	4.6414187560e-01
0.355             	3.3176014813e+00	-6.9244722879e-20	3.3088454046e+00	-2.2980796305e-20	1.2111707983e+00	-1.0786868131e-20	1.6588007406e+00	1.6588007406e+00	-4.5409229570e-20	-2.3835493309e-20	2.8655935006e+00	4.4325190401e-01
0.36              	3.3696950161e+00	-6.9601534842e-20	3.3653891947e+00	-2.3444231456e-20	1.2612300535e+00	-1.0696559115e-20	1.6848475081e+00	1.6848475081e+00	-4.5497326536e-20	-2.4104208306e-20	2.9439246509e+00	4.2146454385e-01
0.365             	3.4180862722e+00	-2.3249350940e-20	3.4187500181e+00	-3.4506189511e-20	1.3122499863e+00	-3.3390159049e-20	1.7090431361e+00	1.7090431361e+00	-4.5014834519e-20	2.1765483579e-20	3.0216249953e+00	3.9712502278e-01
0.37              	3.4569661900e+00	-1.0664854195e-19	3.4629984001e+00	-2.1915952308e-20	1.3628326775e+00	3.5746078787e-22	1.7284830950e+00	1.7284830950e+00	-5.2966810189e-20	-5.3681731765e-20	3.0943318776e+00	3.6866652251e-01
0.375             	3.4547252296e+00	-1.3826305644e-19	3.4658691343e+00	-2.0470925162e-20	1.4023035074e+00	1.2046151178e-20	1.7273626148e+00	1.7273626148e+00	-5.7085377040e-20	-8.1177679397e-20	3.1352380745e+00	3.3063105979e-01
0.38              	5.9653687965e+00	8.6542200823e-20	5.9606791168e+00	-1.1646625790e-19	2.1348035982e+00	-1.4349967921e-19	2.9826843982e+00	2.9826843982e+00	-1.0022857880e-19	1.8677077962e-19	5.1151431566e+00	8.4553596015e-01
0.385             	-2.2534350217e+00	2.8722951454e-19	-2.1832945657e+00	2.0940158814e-20	-1.0553207297e-01	-5.6252308499e-20	-1.1267175108e+00	-1.1267175108e+00	8.7362448771e-20	1.9986706577e-19	-1.1971793558e+00	-9.8611520987e-01
0.39              	5.0284585274e+00	8.8257506197e-20	5.0416609960e+00	-9.5652006705e-20	1.9539747463e+00	-1.1973262252e-19	2.5142292637e+00	2.5142292637e+00	-7.5603869420e-20	1.6386137562e-19	4.4748052443e+00	5.6685575168e-01
0.395             	2.1985868901e+00	-1.2753241935e-20	2.2405233042e+00	-2.8315118263e-20	1.1758268175e+00	-2.2480674519e-20	1.0992934451e+00	1.0992934451e+00	-2.8857295487e-20	1.6104053552e-20	2.2960884696e+00	-5.5565165394e-02
0.4               	2.1253092164e+00	1.2926613406e-20	2.1724832400e+00	-3.1441663520e-20	1.1740173699e+00	-3.3814263120e-20	1.0626546082e+00	1.0626546082e+00	-2.7350956417e-20	4.0277569823e-20	2.2602589899e+00	-8.7775749905e-02
0.405             	2.1085395686e+00	1.4811721117e-20	2.1594266062e+00	-3.1635985516e-20	1.1858095791e+00	-3.4639253753e-20	1.0542697843e+00	1.0542697843e+00	-2.7233393194e-20	4.2045114311e-20	2.2655228821e+00	-1.0609627597e-01
0.41              	2.1037885637e+00	1.5428355547e-20	2.1575897155e+00	-3.1890971942e-20	1.2007742059e+00	-3.5163199885e-20	1.0518942818e+00	1.0518942818e+00	-2.7449022112e-20	4.2877377659e-20	2.2795690636e+00	-1.2197934814e-01
0.415             	2.1028394694e+00	3.0682182036e-20	2.1591119006e+00	-2.8837664904e-20	1.2160311714e+00	-3.6570348762e-20	1.0514197347e+00	1.0514197347e+00	-2.1229257744e-20	5.1911439780e-20	2.2955871217e+00	-1.3647522116e-01
0.42              	2.1008024285e+00	2.5348776293e-19	2.1595074979e+00	-7.6267223529e-20	1.2309638222e+00	-1.5081768505e-19	1.0504012142e+00	1.0504012142e+00	-2.4073803588e-20	2.7756156652e-19	2.3107175711e+00	-1.5121007329e-01
0.425             	2.1045067153e+00	2.7730224244e-19	2.1649113193e+00	-8.4367495833e-20	1.2499626942e+00	-1.6903770540e-19	1.0522533576e+00	1.0522533576e+00	-3.0386584180e-20	3.0768882662e-19	2.3324183539e+00	-1.6750703456e-01
0.43              	2.0996289020e+00	2.9346202568e-19	2.1621357962e+00	-8.3669459824e-20	1.2656165811e+00	-1.7540883735e-19	1.0498144510e+00	1.0498144510e+00	-2.8677824507e-20	3.2213985019e-19	2.3466844793e+00	-1.8454868304e-01
0.435             	2.1097157308e+00	2.7359089493e-19	2.1744420576e+00	-7.6828309476e-20	1.2851798568e+00	-1.6345194386e-19	1.0548578654e+00	1.0548578654e+00	-2.6656496399e-20	3.0024739133e-19	2.3724008856e+00	-1.9795882802e-01
0.44              	2.1158716498e+00	2.7506755425e-19	2.1822253761e+00	-7.7374704717e-20	1.3035711300e+00	-1.6651848446e-19	1.0579358249e+00	1.0579358249e+00	-2.8984707338e-20	3.0405226159e-19	2.3946838181e+00	-2.1245844198e-01
0.445             	2.1152450631e+00	1.3565048688e-19	2.1835497354e+00	-4.8634974880e-20	1.3202045002e+00	-9.5105462538e-20	1.0576225316e+00	1.0576225316e+00	-2.7280219096e-20	1.6293070598e-19	2.4119793679e+00	-2.2842963251e-01
0.45              	2.1126699380e+00	3.1706147215e-19	2.1823852121e+00	-9.0292014714e-20	1.3345511379e+00	-2.0017077982e-19	1.0563349690e+00	1.0563349690e+00	-4.1640043748e-20	3.5870151590e-19	2.4257437439e+00	-2.4335853189e-01
0.455             	2.1088089090e+00	1.6454537790e-19	2.1798655745e+00	-4.5559407830e-20	1.3482068028e+00	-1.0269557385e-19	1.0544044545e+00	1.0544044545e+00	-2.0422884899e-20	1.8496826280e-19	2.4381395901e+00	-2.5827401556e-01
0.46              	2.1086741200e+00	1.4154484097e-19	2.1808018598e+00	-4.9788399812e-20	1.3638795339e+00	-1.0136857031e-19	1.0543370600e+00	1.0543370600e+00	-3.0596149820e-20	1.7214099079e-19	2.4542804638e+00	-2.7347860400e-01
0.465             	2.1084744542e+00	1.4170403480e-19	2.1817258753e+00	-4.9899638354e-20	1.3798290126e+00	-1.0260522007e-19	1.0542372271e+00	1.0542372271e+00	-3.1753202669e-20	1.7345723747e-19	2.4706919502e+00	-2.8896607497e-01
0.47              	2.1065486862e+00	1.5824063462e-19	2.1816505151e+00	-5.1032758354e-20	1.3957160301e+00	-1.1205740593e-19	1.0532743431e+00	1.0532743431e+00	-3.2937088625e-20	1.9117772324e-19	2.4865412876e+00	-3.0489077248e-01
0.475             	2.1028751064e+00	1.7352806809e-19	2.1803523058e+00	-5.0422041795e-20	1.4107012159e+00	-1.1837429624e-19	1.0514375532e+00	1.0514375532e+00	-3.1610262198e-20	2.0513833029e-19	2.5008773688e+00	-3.2052506298e-01
0.48              	2.0954057176e+00	2.2823146154e-19	2.1752838494e+00	-6.6662102470e-20	1.4251185272e+00	-1.5584620217e-19	1.0477028588e+00	1.0477028588e+00	-4.1730471400e-20	2.6996193294e-19	2.5127604519e+00	-3.3747660248e-01
0.485             	2.0935933986e+00	1.9877886896e-19	2.1743866304e+00	-6.6976409696e-20	1.4411607533e+00	-1.4523109550e-19	1.0467966993e+00	1.0467966993e+00	-4.5841661019e-20	2.4462052997e-19	2.5283540684e+00	-3.5396743808e-01
0.49              	2.0941814664e+00	1.9991615173e-19	2.1750316080e+00	-6.7076470170e-20	1.4573058824e+00	-1.4729517433e-19	1.0470907332e+00	1.0470907332e+00	-4.7337098462e-20	2.4725325020e-19	2.5448216864e+00	-3.6979007837e-01
0.495             	2.0928958535e+00	1.7527128638e-19	2.1747372401e+00	-4.6204516944e-20	1.4721156223e+00	-1.1845866748e-19	1.0464479268e+00	1.0464479268e+00	-3.0823024291e-20	2.0609431067e-19	2.5594842424e+00	-3.8474700225e-01
0.5               	2.0862335407e+00	2.0114136994e-19	2.1694146622e+00	-6.7068273518e-20	1.4856312686e+00	-1.5081290146e-19	1.0431167704e+00	1.0431167704e+00	-5.0242216489e-20	2.5138358643e-19	2.5703385997e+00	-4.0092393753e-01
0.505             	2.0803344688e+00	2.0166959648e-19	2.1653606358e+00	-6.7025649850e-20	1.4993846447e+00	-1.5250675762e-19	1.0401672344e+00	1.0401672344e+00	-5.1671959381e-20	2.5334155586e-19	2.5820649627e+00	-4.1670432681e-01
0.51              	2.0836801209e+00	1.3370775259e-19	2.1710751375e+00	-4.7223204582e-20	1.5173021484e+00	-1.0686198868e-19	1.0418400604e+00	1.0418400604e+00	-4.0008112386e-20	1.7371586497e-19	2.6028397171e+00	-4.3176457962e-01
0.515             	2.0818952213e+00	1.2215228439e-19	2.1707400752e+00	-5.4345601399e-20	1.5328467538e+00	-1.0582140988e-19	1.0409476106e+00	1.0409476106e+00	-4.4745267687e-20	1.6689755208e-19	2.6182167913e+00	-4.4747671617e-01
0.52              	2.0799457621e+00	1.0273276025e-19	2.1701091847e+00	-5.3080825684e-20	1.5481600760e+00	-9.6827025249e-20	1.0399728811e+00	1.0399728811e+00	-4.5460645125e-20	1.4819340537e-19	2.6332146683e+00	-4.6310548361e-01
0.525             	2.0785478078e+00	1.4279556619e-19	2.1699645128e+00	-6.3080556161e-20	1.5639777088e+00	-1.2795545072e-19	1.0392739039e+00	1.0392739039e+00	-5.6557667629e-20	1.9935323382e-19	2.6489599652e+00	-4.7899545239e-01
0.53              	2.0747537026e+00	5.2004350377e-20	2.1671776685e+00	-2.8036591465e-20	1.5789895990e+00	-5.2743696063e-20	1.0373768513e+00	1.0373768513e+00	-2.6741520875e-20	7.8745871252e-20	2.6625784333e+00	-4.9540076479e-01
0.535             	2.0757256774e+00	1.1136889764e-19	2.1694724565e+00	-6.4436926290e-20	1.5955738959e+00	-1.1674855887e-19	1.0378628387e+00	1.0378628387e+00	-6.1064110048e-20	1.7243300769e-19	2.6803101241e+00	-5.1083766768e-01
0.54              	2.0747603966e+00	5.7608850732e-20	2.1696389208e+00	-2.6007420339e-20	1.6113317709e+00	-5.4716361979e-20	1.0373801983e+00	1.0373801983e+00	-2.5911936613e-20	8.3520787345e-20	2.6961512313e+00	-5.2651231051e-01
0.545             	2.0740690700e+00	8.8614773715e-20	2.1699574378e+00	-5.4634722400e-20	1.6271424960e+00	-9.5433942450e-20	1.0370345350e+00	1.0370345350e+00	-5.1126555592e-20	1.3974132931e-19	2.7121212149e+00	-5.4216377704e-01
0.55              	2.0721464822e+00	1.5054002325e-19	2.1690313328e+00	-4.1323205789e-20	1.6421821666e+00	-1.1783378628e-19	1.0360732411e+00	1.0360732411e+00	-4.2563774657e-20	1.9310379791e-19	2.7266978330e+00	-5.5766650020e-01
0.555             	2.0657222727e+00	1.4930896203e-19	2.1640884308e+00	-4.1097116414e-20	1.6550482029e+00	-1.1811948102e-19	1.0328611364e+00	1.0328611364e+00	-4.3465000006e-20	1.9277396204e-19	2.7370924182e+00	-5.7300398748e-01
0.56              	2.0671043156e+00	9.1920502971e-20	2.1664311175e+00	-2.0261287096e-20	1.6732248707e+00	-6.9845130660e-20	1.0335521578e+00	1.0335521578e+00	-2.3884879175e-20	1.1580538215e-19	2.7564404295e+00	-5.9000931201e-01
0.565             	2.0662265142e+00	1.8464003285e-19	2.1663443012e+00	-3.8539429936e-20	1.6885993088e+00	-1.3862555843e-19	1.0331132571e+00	1.0331132571e+00	-4.6305542006e-20	2.3094557486e-19	2.7717714593e+00	-6.0542715818e-01
0.57              	2.0664465609e+00	1.7141300819e-19	2.1674253762e+00	-6.0469027342e-20	1.7046997768e+00	-1.5208650890e-19	1.0332232804e+00	1.0332232804e+00	-6.6380004801e-20	2.3779301299e-19	2.7884124649e+00	-6.2098708867e-01
0.575             	2.0659067888e+00	1.9790482867e-19	2.1675332943e+00	-3.7753736769e-20	1.7200051515e+00	-1.4764084976e-19	1.0329533944e+00	1.0329533944e+00	-4.8688435422e-20	2.4659326410e-19	2.8037717986e+00	-6.3623850430e-01
0.58              	2.0666606193e+00	1.1334431997e-19	2.1689743394e+00	-1.8287670269e-20	1.7359047659e+00	-8.2950724840e-20	1.0333303096e+00	1.0333303096e+00	-2.6278564853e-20	1.3962288483e-19	2.8203919356e+00	-6.5141759627e-01
0.585             	2.0547229948e+00	1.0074947774e-19	2.1575834772e+00	-1.9216288783e-20	1.7449872486e+00	-7.7096760114e-20	1.0273614974e+00	1.0273614974e+00	-2.6722021246e-20	1.2747149898e-19	2.8237789872e+00	-6.6619551003e-01
0.59              	2.0449708155e+00	9.9167710021e-20	2.1483286373e+00	-1.8904289529e-20	1.7553610906e+00	-7.6661597387e-20	1.0224854078e+00	1.0224854078e+00	-2.7077742377e-20	1.2624545240e-19	2.8295254093e+00	-6.8119677199e-01
0.595             	2.0443025345e+00	9.7602416703e-20	2.1482722774e+00	-1.8591665329e-20	1.7694905447e+00	-7.6223521371e-20	1.0221512672e+00	1.0221512672e+00	-2.7422313019e-20	1.2502472972e-19	2.8436266834e+00	-6.9535440594e-01
0.6               	2.0450178327e+00	9.5105875562e-20	2.1497850819e+00	-1.5142257066e-20	1.7851174184e+00	-7.2122618790e-20	1.0225089163e+00	1.0225089163e+00	-2.4569681009e-20	1.1967555657e-19	2.8600099594e+00	-7.1022487744e-01
0.605             	2.0405708719e+00	2.0339885725e-19	2.1459580868e+00	-5.2874522382e-20	1.7974256663e+00	-1.7267322277e-19	1.0202854359e+00	1.0202854359e+00	-7.0973794142e-20	2.7437265139e-19	2.8704047097e+00	-7.2444662294e-01
0.61              	2.0381090215e+00	2.0180631213e-19	2.1439945554e+00	-5.2755602742e-20	1.8106909305e+00	-1.7316342931e-19	1.0190545108e+00	1.0190545108e+00	-7.2260273247e-20	2.7406658538e-19	2.8826882082e+00	-7.3869365283e-01
0.615             	2.0345385614e+00	1.6955533452e-19	2.1411503915e+00	-4.0762285739e-20	1.8235081968e+00	-1.4226398195e-19	1.0172692807e+00	1.0172692807e+00	-5.7486314693e-20	2.2704164921e-19	2.8940833926e+00	-7.5293300109e-01
0.62              	2.0344394701e+00	1.9882759362e-19	2.1420401290e+00	-5.2782117223e-20	1.8392643692e+00	-1.7446967566e-19	1.0172197351e+00	1.0172197351e+00	-7.5055878847e-20	2.7388347247e-19	2.9102844337e+00	-7.6824430476e-01
0.625             	2.0314708859e+00	1.8029399370e-19	2.1398555881e+00	-2.9906174642e-20	1.8526097138e+00	-1.4328637700e-19	1.0157354429e+00	1.0157354429e+00	-5.3139380150e-20	2.3343337385e-19	2.9225375079e+00	-7.8268191977e-01